t 1 /NodeList/0/DeviceList/0/$ns3::WifiNetDevice/Phy/Tx ns3::WifiMacHeader (DATA ToDS=0, FromDS=0, MoreFrag=0, Retry=0, MoreData=0 Duration/ID=0usDA=ff:ff:ff:ff:ff:ff, SA=00:00:00:00:00:01, BSSID=00:00:00:00:00:01, FragNumber=0, SeqNumber=0) ns3::LlcSnapHeader (type 0x806) ns3::ArpHeader (request source mac: 00-06-00:00:00:00:00:01 source ipv4: 10.0.0.1 dest ipv4: 10.0.0.2) ns3::WifiMacTrailer ()
r 1.00014 /NodeList/1/DeviceList/0/$ns3::WifiNetDevice/Phy/RxOk ns3::ArpHeader (request source mac: 00-06-00:00:00:00:00:01 source ipv4: 10.0.0.1 dest ipv4: 10.0.0.2)
t 1.00019 /NodeList/1/DeviceList/0/$ns3::WifiNetDevice/Phy/Tx ns3::WifiMacHeader (DATA ToDS=0, FromDS=0, MoreFrag=0, Retry=0, MoreData=0 Duration/ID=120usDA=00:00:00:00:00:01, SA=00:00:00:00:00:02, BSSID=00:00:00:00:00:02, FragNumber=0, SeqNumber=0) ns3::LlcSnapHeader (type 0x806) ns3::ArpHeader (reply source mac: 00-06-00:00:00:00:00:02 source ipv4: 10.0.0.2 dest mac: 00-06-00:00:00:00:00:01 dest ipv4: 10.0.0.1) ns3::WifiMacTrailer ()
r 1.00033 /NodeList/0/DeviceList/0/$ns3::WifiNetDevice/Phy/RxOk ns3::ArpHeader (reply source mac: 00-06-00:00:00:00:00:02 source ipv4: 10.0.0.2 dest mac: 00-06-00:00:00:00:00:01 dest ipv4: 10.0.0.1)
t 1.00036 /NodeList/0/DeviceList/0/$ns3::WifiNetDevice/Phy/Tx ns3::WifiMacHeader (CTL_ACK Duration/ID=0us, RA=00:00:00:00:00:02) ns3::WifiMacTrailer ()
r 1.00045 /NodeList/1/DeviceList/0/$ns3::WifiNetDevice/Phy/RxOk ns3::WifiMacTrailer ()
t 1.0007 /NodeList/0/DeviceList/0/$ns3::WifiNetDevice/Phy/Tx ns3::WifiMacHeader (DATA ToDS=0, FromDS=0, MoreFrag=0, Retry=0, MoreData=0 Duration/ID=120usDA=00:00:00:00:00:02, SA=00:00:00:00:00:01, BSSID=00:00:00:00:00:01, FragNumber=0, SeqNumber=1) ns3::LlcSnapHeader (type 0x800) ns3::Ipv4Header (tos 0x0 DSCP Default ECN Not-ECT ttl 64 id 0 protocol 17 offset (bytes) 0 flags [none] length: 284 10.0.0.1 > 10.0.0.2) ns3::UdpHeader (length: 264 49153 > 4000) Payload (size=256) ns3::WifiMacTrailer ()
r 1.00118 /NodeList/1/DeviceList/0/$ns3::WifiNetDevice/Phy/RxOk ns3::Ipv4Header (tos 0x0 DSCP Default ECN Not-ECT ttl 64 id 0 protocol 17 offset (bytes) 0 flags [none] length: 284 10.0.0.1 > 10.0.0.2) ns3::UdpHeader (length: 264 49153 > 4000) Payload (size=256)
t 1.00121 /NodeList/1/DeviceList/0/$ns3::WifiNetDevice/Phy/Tx ns3::WifiMacHeader (CTL_ACK Duration/ID=0us, RA=00:00:00:00:00:01) ns3::WifiMacTrailer ()
r 1.0013 /NodeList/0/DeviceList/0/$ns3::WifiNetDevice/Phy/RxOk ns3::WifiMacTrailer ()
t 2 /NodeList/0/DeviceList/0/$ns3::WifiNetDevice/Phy/Tx ns3::WifiMacHeader (DATA ToDS=0, FromDS=0, MoreFrag=0, Retry=0, MoreData=0 Duration/ID=120usDA=00:00:00:00:00:02, SA=00:00:00:00:00:01, BSSID=00:00:00:00:00:01, FragNumber=0, SeqNumber=2) ns3::LlcSnapHeader (type 0x800) ns3::Ipv4Header (tos 0x0 DSCP Default ECN Not-ECT ttl 64 id 1 protocol 17 offset (bytes) 0 flags [none] length: 284 10.0.0.1 > 10.0.0.2) ns3::UdpHeader (length: 264 49153 > 4000) Payload (size=256) ns3::WifiMacTrailer ()
r 2.00047 /NodeList/1/DeviceList/0/$ns3::WifiNetDevice/Phy/RxOk ns3::Ipv4Header (tos 0x0 DSCP Default ECN Not-ECT ttl 64 id 1 protocol 17 offset (bytes) 0 flags [none] length: 284 10.0.0.1 > 10.0.0.2) ns3::UdpHeader (length: 264 49153 > 4000) Payload (size=256)
t 2.0005 /NodeList/1/DeviceList/0/$ns3::WifiNetDevice/Phy/Tx ns3::WifiMacHeader (CTL_ACK Duration/ID=0us, RA=00:00:00:00:00:01) ns3::WifiMacTrailer ()
r 2.00059 /NodeList/0/DeviceList/0/$ns3::WifiNetDevice/Phy/RxOk ns3::WifiMacTrailer ()
t 3 /NodeList/0/DeviceList/0/$ns3::WifiNetDevice/Phy/Tx ns3::WifiMacHeader (DATA ToDS=0, FromDS=0, MoreFrag=0, Retry=0, MoreData=0 Duration/ID=120usDA=00:00:00:00:00:02, SA=00:00:00:00:00:01, BSSID=00:00:00:00:00:01, FragNumber=0, SeqNumber=3) ns3::LlcSnapHeader (type 0x800) ns3::Ipv4Header (tos 0x0 DSCP Default ECN Not-ECT ttl 64 id 2 protocol 17 offset (bytes) 0 flags [none] length: 284 10.0.0.1 > 10.0.0.2) ns3::UdpHeader (length: 264 49153 > 4000) Payload (size=256) ns3::WifiMacTrailer ()
r 3.00047 /NodeList/1/DeviceList/0/$ns3::WifiNetDevice/Phy/RxOk ns3::Ipv4Header (tos 0x0 DSCP Default ECN Not-ECT ttl 64 id 2 protocol 17 offset (bytes) 0 flags [none] length: 284 10.0.0.1 > 10.0.0.2) ns3::UdpHeader (length: 264 49153 > 4000) Payload (size=256)
t 3.0005 /NodeList/1/DeviceList/0/$ns3::WifiNetDevice/Phy/Tx ns3::WifiMacHeader (CTL_ACK Duration/ID=0us, RA=00:00:00:00:00:01) ns3::WifiMacTrailer ()
r 3.00059 /NodeList/0/DeviceList/0/$ns3::WifiNetDevice/Phy/RxOk ns3::WifiMacTrailer ()
t 4 /NodeList/0/DeviceList/0/$ns3::WifiNetDevice/Phy/Tx ns3::WifiMacHeader (DATA ToDS=0, FromDS=0, MoreFrag=0, Retry=0, MoreData=0 Duration/ID=120usDA=00:00:00:00:00:02, SA=00:00:00:00:00:01, BSSID=00:00:00:00:00:01, FragNumber=0, SeqNumber=4) ns3::LlcSnapHeader (type 0x800) ns3::Ipv4Header (tos 0x0 DSCP Default ECN Not-ECT ttl 64 id 3 protocol 17 offset (bytes) 0 flags [none] length: 284 10.0.0.1 > 10.0.0.2) ns3::UdpHeader (length: 264 49153 > 4000) Payload (size=256) ns3::WifiMacTrailer ()
r 4.00047 /NodeList/1/DeviceList/0/$ns3::WifiNetDevice/Phy/RxOk ns3::Ipv4Header (tos 0x0 DSCP Default ECN Not-ECT ttl 64 id 3 protocol 17 offset (bytes) 0 flags [none] length: 284 10.0.0.1 > 10.0.0.2) ns3::UdpHeader (length: 264 49153 > 4000) Payload (size=256)
t 4.0005 /NodeList/1/DeviceList/0/$ns3::WifiNetDevice/Phy/Tx ns3::WifiMacHeader (CTL_ACK Duration/ID=0us, RA=00:00:00:00:00:01) ns3::WifiMacTrailer ()
r 4.00059 /NodeList/0/DeviceList/0/$ns3::WifiNetDevice/Phy/RxOk ns3::WifiMacTrailer ()
t 5 /NodeList/0/DeviceList/0/$ns3::WifiNetDevice/Phy/Tx ns3::WifiMacHeader (DATA ToDS=0, FromDS=0, MoreFrag=0, Retry=0, MoreData=0 Duration/ID=120usDA=00:00:00:00:00:02, SA=00:00:00:00:00:01, BSSID=00:00:00:00:00:01, FragNumber=0, SeqNumber=5) ns3::LlcSnapHeader (type 0x800) ns3::Ipv4Header (tos 0x0 DSCP Default ECN Not-ECT ttl 64 id 4 protocol 17 offset (bytes) 0 flags [none] length: 284 10.0.0.1 > 10.0.0.2) ns3::UdpHeader (length: 264 49153 > 4000) Payload (size=256) ns3::WifiMacTrailer ()
r 5.00047 /NodeList/1/DeviceList/0/$ns3::WifiNetDevice/Phy/RxOk ns3::Ipv4Header (tos 0x0 DSCP Default ECN Not-ECT ttl 64 id 4 protocol 17 offset (bytes) 0 flags [none] length: 284 10.0.0.1 > 10.0.0.2) ns3::UdpHeader (length: 264 49153 > 4000) Payload (size=256)
t 5.0005 /NodeList/1/DeviceList/0/$ns3::WifiNetDevice/Phy/Tx ns3::WifiMacHeader (CTL_ACK Duration/ID=0us, RA=00:00:00:00:00:01) ns3::WifiMacTrailer ()
r 5.00059 /NodeList/0/DeviceList/0/$ns3::WifiNetDevice/Phy/RxOk ns3::WifiMacTrailer ()
t 6 /NodeList/0/DeviceList/0/$ns3::WifiNetDevice/Phy/Tx ns3::WifiMacHeader (DATA ToDS=0, FromDS=0, MoreFrag=0, Retry=0, MoreData=0 Duration/ID=120usDA=00:00:00:00:00:02, SA=00:00:00:00:00:01, BSSID=00:00:00:00:00:01, FragNumber=0, SeqNumber=6) ns3::LlcSnapHeader (type 0x800) ns3::Ipv4Header (tos 0x0 DSCP Default ECN Not-ECT ttl 64 id 5 protocol 17 offset (bytes) 0 flags [none] length: 284 10.0.0.1 > 10.0.0.2) ns3::UdpHeader (length: 264 49153 > 4000) Payload (size=256) ns3::WifiMacTrailer ()
r 6.00047 /NodeList/1/DeviceList/0/$ns3::WifiNetDevice/Phy/RxOk ns3::Ipv4Header (tos 0x0 DSCP Default ECN Not-ECT ttl 64 id 5 protocol 17 offset (bytes) 0 flags [none] length: 284 10.0.0.1 > 10.0.0.2) ns3::UdpHeader (length: 264 49153 > 4000) Payload (size=256)
t 6.0005 /NodeList/1/DeviceList/0/$ns3::WifiNetDevice/Phy/Tx ns3::WifiMacHeader (CTL_ACK Duration/ID=0us, RA=00:00:00:00:00:01) ns3::WifiMacTrailer ()
r 6.00059 /NodeList/0/DeviceList/0/$ns3::WifiNetDevice/Phy/RxOk ns3::WifiMacTrailer ()
t 7 /NodeList/0/DeviceList/0/$ns3::WifiNetDevice/Phy/Tx ns3::WifiMacHeader (DATA ToDS=0, FromDS=0, MoreFrag=0, Retry=0, MoreData=0 Duration/ID=120usDA=00:00:00:00:00:02, SA=00:00:00:00:00:01, BSSID=00:00:00:00:00:01, FragNumber=0, SeqNumber=7) ns3::LlcSnapHeader (type 0x800) ns3::Ipv4Header (tos 0x0 DSCP Default ECN Not-ECT ttl 64 id 6 protocol 17 offset (bytes) 0 flags [none] length: 284 10.0.0.1 > 10.0.0.2) ns3::UdpHeader (length: 264 49153 > 4000) Payload (size=256) ns3::WifiMacTrailer ()
r 7.00047 /NodeList/1/DeviceList/0/$ns3::WifiNetDevice/Phy/RxOk ns3::Ipv4Header (tos 0x0 DSCP Default ECN Not-ECT ttl 64 id 6 protocol 17 offset (bytes) 0 flags [none] length: 284 10.0.0.1 > 10.0.0.2) ns3::UdpHeader (length: 264 49153 > 4000) Payload (size=256)
t 7.0005 /NodeList/1/DeviceList/0/$ns3::WifiNetDevice/Phy/Tx ns3::WifiMacHeader (CTL_ACK Duration/ID=0us, RA=00:00:00:00:00:01) ns3::WifiMacTrailer ()
r 7.00059 /NodeList/0/DeviceList/0/$ns3::WifiNetDevice/Phy/RxOk ns3::WifiMacTrailer ()
t 8 /NodeList/0/DeviceList/0/$ns3::WifiNetDevice/Phy/Tx ns3::WifiMacHeader (DATA ToDS=0, FromDS=0, MoreFrag=0, Retry=0, MoreData=0 Duration/ID=120usDA=00:00:00:00:00:02, SA=00:00:00:00:00:01, BSSID=00:00:00:00:00:01, FragNumber=0, SeqNumber=8) ns3::LlcSnapHeader (type 0x800) ns3::Ipv4Header (tos 0x0 DSCP Default ECN Not-ECT ttl 64 id 7 protocol 17 offset (bytes) 0 flags [none] length: 284 10.0.0.1 > 10.0.0.2) ns3::UdpHeader (length: 264 49153 > 4000) Payload (size=256) ns3::WifiMacTrailer ()
r 8.00047 /NodeList/1/DeviceList/0/$ns3::WifiNetDevice/Phy/RxOk ns3::Ipv4Header (tos 0x0 DSCP Default ECN Not-ECT ttl 64 id 7 protocol 17 offset (bytes) 0 flags [none] length: 284 10.0.0.1 > 10.0.0.2) ns3::UdpHeader (length: 264 49153 > 4000) Payload (size=256)
t 8.0005 /NodeList/1/DeviceList/0/$ns3::WifiNetDevice/Phy/Tx ns3::WifiMacHeader (CTL_ACK Duration/ID=0us, RA=00:00:00:00:00:01) ns3::WifiMacTrailer ()
r 8.00059 /NodeList/0/DeviceList/0/$ns3::WifiNetDevice/Phy/RxOk ns3::WifiMacTrailer ()
t 9 /NodeList/0/DeviceList/0/$ns3::WifiNetDevice/Phy/Tx ns3::WifiMacHeader (DATA ToDS=0, FromDS=0, MoreFrag=0, Retry=0, MoreData=0 Duration/ID=120usDA=00:00:00:00:00:02, SA=00:00:00:00:00:01, BSSID=00:00:00:00:00:01, FragNumber=0, SeqNumber=9) ns3::LlcSnapHeader (type 0x800) ns3::Ipv4Header (tos 0x0 DSCP Default ECN Not-ECT ttl 64 id 8 protocol 17 offset (bytes) 0 flags [none] length: 284 10.0.0.1 > 10.0.0.2) ns3::UdpHeader (length: 264 49153 > 4000) Payload (size=256) ns3::WifiMacTrailer ()
r 9.00047 /NodeList/1/DeviceList/0/$ns3::WifiNetDevice/Phy/RxOk ns3::Ipv4Header (tos 0x0 DSCP Default ECN Not-ECT ttl 64 id 8 protocol 17 offset (bytes) 0 flags [none] length: 284 10.0.0.1 > 10.0.0.2) ns3::UdpHeader (length: 264 49153 > 4000) Payload (size=256)
t 9.0005 /NodeList/1/DeviceList/0/$ns3::WifiNetDevice/Phy/Tx ns3::WifiMacHeader (CTL_ACK Duration/ID=0us, RA=00:00:00:00:00:01) ns3::WifiMacTrailer ()
r 9.00059 /NodeList/0/DeviceList/0/$ns3::WifiNetDevice/Phy/RxOk ns3::WifiMacTrailer ()
t 10 /NodeList/0/DeviceList/0/$ns3::WifiNetDevice/Phy/Tx ns3::WifiMacHeader (DATA ToDS=0, FromDS=0, MoreFrag=0, Retry=0, MoreData=0 Duration/ID=120usDA=00:00:00:00:00:02, SA=00:00:00:00:00:01, BSSID=00:00:00:00:00:01, FragNumber=0, SeqNumber=10) ns3::LlcSnapHeader (type 0x800) ns3::Ipv4Header (tos 0x0 DSCP Default ECN Not-ECT ttl 64 id 9 protocol 17 offset (bytes) 0 flags [none] length: 284 10.0.0.1 > 10.0.0.2) ns3::UdpHeader (length: 264 49153 > 4000) Payload (size=256) ns3::WifiMacTrailer ()
r 10.0005 /NodeList/1/DeviceList/0/$ns3::WifiNetDevice/Phy/RxOk ns3::Ipv4Header (tos 0x0 DSCP Default ECN Not-ECT ttl 64 id 9 protocol 17 offset (bytes) 0 flags [none] length: 284 10.0.0.1 > 10.0.0.2) ns3::UdpHeader (length: 264 49153 > 4000) Payload (size=256)
t 10.0005 /NodeList/1/DeviceList/0/$ns3::WifiNetDevice/Phy/Tx ns3::WifiMacHeader (CTL_ACK Duration/ID=0us, RA=00:00:00:00:00:01) ns3::WifiMacTrailer ()
r 10.0006 /NodeList/0/DeviceList/0/$ns3::WifiNetDevice/Phy/RxOk ns3::WifiMacTrailer ()
t 11 /NodeList/0/DeviceList/0/$ns3::WifiNetDevice/Phy/Tx ns3::WifiMacHeader (DATA ToDS=0, FromDS=0, MoreFrag=0, Retry=0, MoreData=0 Duration/ID=120usDA=00:00:00:00:00:02, SA=00:00:00:00:00:01, BSSID=00:00:00:00:00:01, FragNumber=0, SeqNumber=11) ns3::LlcSnapHeader (type 0x800) ns3::Ipv4Header (tos 0x0 DSCP Default ECN Not-ECT ttl 64 id 10 protocol 17 offset (bytes) 0 flags [none] length: 284 10.0.0.1 > 10.0.0.2) ns3::UdpHeader (length: 264 49153 > 4000) Payload (size=256) ns3::WifiMacTrailer ()
r 11.0005 /NodeList/1/DeviceList/0/$ns3::WifiNetDevice/Phy/RxOk ns3::Ipv4Header (tos 0x0 DSCP Default ECN Not-ECT ttl 64 id 10 protocol 17 offset (bytes) 0 flags [none] length: 284 10.0.0.1 > 10.0.0.2) ns3::UdpHeader (length: 264 49153 > 4000) Payload (size=256)
t 11.0005 /NodeList/1/DeviceList/0/$ns3::WifiNetDevice/Phy/Tx ns3::WifiMacHeader (CTL_ACK Duration/ID=0us, RA=00:00:00:00:00:01) ns3::WifiMacTrailer ()
r 11.0006 /NodeList/0/DeviceList/0/$ns3::WifiNetDevice/Phy/RxOk ns3::WifiMacTrailer ()
t 12 /NodeList/0/DeviceList/0/$ns3::WifiNetDevice/Phy/Tx ns3::WifiMacHeader (DATA ToDS=0, FromDS=0, MoreFrag=0, Retry=0, MoreData=0 Duration/ID=120usDA=00:00:00:00:00:02, SA=00:00:00:00:00:01, BSSID=00:00:00:00:00:01, FragNumber=0, SeqNumber=12) ns3::LlcSnapHeader (type 0x800) ns3::Ipv4Header (tos 0x0 DSCP Default ECN Not-ECT ttl 64 id 11 protocol 17 offset (bytes) 0 flags [none] length: 284 10.0.0.1 > 10.0.0.2) ns3::UdpHeader (length: 264 49153 > 4000) Payload (size=256) ns3::WifiMacTrailer ()
r 12.0005 /NodeList/1/DeviceList/0/$ns3::WifiNetDevice/Phy/RxOk ns3::Ipv4Header (tos 0x0 DSCP Default ECN Not-ECT ttl 64 id 11 protocol 17 offset (bytes) 0 flags [none] length: 284 10.0.0.1 > 10.0.0.2) ns3::UdpHeader (length: 264 49153 > 4000) Payload (size=256)
t 12.0005 /NodeList/1/DeviceList/0/$ns3::WifiNetDevice/Phy/Tx ns3::WifiMacHeader (CTL_ACK Duration/ID=0us, RA=00:00:00:00:00:01) ns3::WifiMacTrailer ()
r 12.0006 /NodeList/0/DeviceList/0/$ns3::WifiNetDevice/Phy/RxOk ns3::WifiMacTrailer ()
t 13 /NodeList/0/DeviceList/0/$ns3::WifiNetDevice/Phy/Tx ns3::WifiMacHeader (DATA ToDS=0, FromDS=0, MoreFrag=0, Retry=0, MoreData=0 Duration/ID=120usDA=00:00:00:00:00:02, SA=00:00:00:00:00:01, BSSID=00:00:00:00:00:01, FragNumber=0, SeqNumber=13) ns3::LlcSnapHeader (type 0x800) ns3::Ipv4Header (tos 0x0 DSCP Default ECN Not-ECT ttl 64 id 12 protocol 17 offset (bytes) 0 flags [none] length: 284 10.0.0.1 > 10.0.0.2) ns3::UdpHeader (length: 264 49153 > 4000) Payload (size=256) ns3::WifiMacTrailer ()
r 13.0005 /NodeList/1/DeviceList/0/$ns3::WifiNetDevice/Phy/RxOk ns3::Ipv4Header (tos 0x0 DSCP Default ECN Not-ECT ttl 64 id 12 protocol 17 offset (bytes) 0 flags [none] length: 284 10.0.0.1 > 10.0.0.2) ns3::UdpHeader (length: 264 49153 > 4000) Payload (size=256)
t 13.0005 /NodeList/1/DeviceList/0/$ns3::WifiNetDevice/Phy/Tx ns3::WifiMacHeader (CTL_ACK Duration/ID=0us, RA=00:00:00:00:00:01) ns3::WifiMacTrailer ()
r 13.0006 /NodeList/0/DeviceList/0/$ns3::WifiNetDevice/Phy/RxOk ns3::WifiMacTrailer ()
t 14 /NodeList/0/DeviceList/0/$ns3::WifiNetDevice/Phy/Tx ns3::WifiMacHeader (DATA ToDS=0, FromDS=0, MoreFrag=0, Retry=0, MoreData=0 Duration/ID=120usDA=00:00:00:00:00:02, SA=00:00:00:00:00:01, BSSID=00:00:00:00:00:01, FragNumber=0, SeqNumber=14) ns3::LlcSnapHeader (type 0x800) ns3::Ipv4Header (tos 0x0 DSCP Default ECN Not-ECT ttl 64 id 13 protocol 17 offset (bytes) 0 flags [none] length: 284 10.0.0.1 > 10.0.0.2) ns3::UdpHeader (length: 264 49153 > 4000) Payload (size=256) ns3::WifiMacTrailer ()
r 14.0005 /NodeList/1/DeviceList/0/$ns3::WifiNetDevice/Phy/RxOk ns3::Ipv4Header (tos 0x0 DSCP Default ECN Not-ECT ttl 64 id 13 protocol 17 offset (bytes) 0 flags [none] length: 284 10.0.0.1 > 10.0.0.2) ns3::UdpHeader (length: 264 49153 > 4000) Payload (size=256)
t 14.0005 /NodeList/1/DeviceList/0/$ns3::WifiNetDevice/Phy/Tx ns3::WifiMacHeader (CTL_ACK Duration/ID=0us, RA=00:00:00:00:00:01) ns3::WifiMacTrailer ()
r 14.0006 /NodeList/0/DeviceList/0/$ns3::WifiNetDevice/Phy/RxOk ns3::WifiMacTrailer ()
t 15 /NodeList/0/DeviceList/0/$ns3::WifiNetDevice/Phy/Tx ns3::WifiMacHeader (DATA ToDS=0, FromDS=0, MoreFrag=0, Retry=0, MoreData=0 Duration/ID=120usDA=00:00:00:00:00:02, SA=00:00:00:00:00:01, BSSID=00:00:00:00:00:01, FragNumber=0, SeqNumber=15) ns3::LlcSnapHeader (type 0x800) ns3::Ipv4Header (tos 0x0 DSCP Default ECN Not-ECT ttl 64 id 14 protocol 17 offset (bytes) 0 flags [none] length: 284 10.0.0.1 > 10.0.0.2) ns3::UdpHeader (length: 264 49153 > 4000) Payload (size=256) ns3::WifiMacTrailer ()
r 15.0005 /NodeList/1/DeviceList/0/$ns3::WifiNetDevice/Phy/RxOk ns3::Ipv4Header (tos 0x0 DSCP Default ECN Not-ECT ttl 64 id 14 protocol 17 offset (bytes) 0 flags [none] length: 284 10.0.0.1 > 10.0.0.2) ns3::UdpHeader (length: 264 49153 > 4000) Payload (size=256)
t 15.0005 /NodeList/1/DeviceList/0/$ns3::WifiNetDevice/Phy/Tx ns3::WifiMacHeader (CTL_ACK Duration/ID=0us, RA=00:00:00:00:00:01) ns3::WifiMacTrailer ()
r 15.0006 /NodeList/0/DeviceList/0/$ns3::WifiNetDevice/Phy/RxOk ns3::WifiMacTrailer ()
t 16 /NodeList/0/DeviceList/0/$ns3::WifiNetDevice/Phy/Tx ns3::WifiMacHeader (DATA ToDS=0, FromDS=0, MoreFrag=0, Retry=0, MoreData=0 Duration/ID=120usDA=00:00:00:00:00:02, SA=00:00:00:00:00:01, BSSID=00:00:00:00:00:01, FragNumber=0, SeqNumber=16) ns3::LlcSnapHeader (type 0x800) ns3::Ipv4Header (tos 0x0 DSCP Default ECN Not-ECT ttl 64 id 15 protocol 17 offset (bytes) 0 flags [none] length: 284 10.0.0.1 > 10.0.0.2) ns3::UdpHeader (length: 264 49153 > 4000) Payload (size=256) ns3::WifiMacTrailer ()
r 16.0005 /NodeList/1/DeviceList/0/$ns3::WifiNetDevice/Phy/RxOk ns3::Ipv4Header (tos 0x0 DSCP Default ECN Not-ECT ttl 64 id 15 protocol 17 offset (bytes) 0 flags [none] length: 284 10.0.0.1 > 10.0.0.2) ns3::UdpHeader (length: 264 49153 > 4000) Payload (size=256)
t 16.0005 /NodeList/1/DeviceList/0/$ns3::WifiNetDevice/Phy/Tx ns3::WifiMacHeader (CTL_ACK Duration/ID=0us, RA=00:00:00:00:00:01) ns3::WifiMacTrailer ()
r 16.0006 /NodeList/0/DeviceList/0/$ns3::WifiNetDevice/Phy/RxOk ns3::WifiMacTrailer ()
t 17 /NodeList/0/DeviceList/0/$ns3::WifiNetDevice/Phy/Tx ns3::WifiMacHeader (DATA ToDS=0, FromDS=0, MoreFrag=0, Retry=0, MoreData=0 Duration/ID=120usDA=00:00:00:00:00:02, SA=00:00:00:00:00:01, BSSID=00:00:00:00:00:01, FragNumber=0, SeqNumber=17) ns3::LlcSnapHeader (type 0x800) ns3::Ipv4Header (tos 0x0 DSCP Default ECN Not-ECT ttl 64 id 16 protocol 17 offset (bytes) 0 flags [none] length: 284 10.0.0.1 > 10.0.0.2) ns3::UdpHeader (length: 264 49153 > 4000) Payload (size=256) ns3::WifiMacTrailer ()
r 17.0005 /NodeList/1/DeviceList/0/$ns3::WifiNetDevice/Phy/RxOk ns3::Ipv4Header (tos 0x0 DSCP Default ECN Not-ECT ttl 64 id 16 protocol 17 offset (bytes) 0 flags [none] length: 284 10.0.0.1 > 10.0.0.2) ns3::UdpHeader (length: 264 49153 > 4000) Payload (size=256)
t 17.0005 /NodeList/1/DeviceList/0/$ns3::WifiNetDevice/Phy/Tx ns3::WifiMacHeader (CTL_ACK Duration/ID=0us, RA=00:00:00:00:00:01) ns3::WifiMacTrailer ()
r 17.0006 /NodeList/0/DeviceList/0/$ns3::WifiNetDevice/Phy/RxOk ns3::WifiMacTrailer ()
t 18 /NodeList/0/DeviceList/0/$ns3::WifiNetDevice/Phy/Tx ns3::WifiMacHeader (DATA ToDS=0, FromDS=0, MoreFrag=0, Retry=0, MoreData=0 Duration/ID=120usDA=00:00:00:00:00:02, SA=00:00:00:00:00:01, BSSID=00:00:00:00:00:01, FragNumber=0, SeqNumber=18) ns3::LlcSnapHeader (type 0x800) ns3::Ipv4Header (tos 0x0 DSCP Default ECN Not-ECT ttl 64 id 17 protocol 17 offset (bytes) 0 flags [none] length: 284 10.0.0.1 > 10.0.0.2) ns3::UdpHeader (length: 264 49153 > 4000) Payload (size=256) ns3::WifiMacTrailer ()
r 18.0005 /NodeList/1/DeviceList/0/$ns3::WifiNetDevice/Phy/RxOk ns3::Ipv4Header (tos 0x0 DSCP Default ECN Not-ECT ttl 64 id 17 protocol 17 offset (bytes) 0 flags [none] length: 284 10.0.0.1 > 10.0.0.2) ns3::UdpHeader (length: 264 49153 > 4000) Payload (size=256)
t 18.0005 /NodeList/1/DeviceList/0/$ns3::WifiNetDevice/Phy/Tx ns3::WifiMacHeader (CTL_ACK Duration/ID=0us, RA=00:00:00:00:00:01) ns3::WifiMacTrailer ()
r 18.0006 /NodeList/0/DeviceList/0/$ns3::WifiNetDevice/Phy/RxOk ns3::WifiMacTrailer ()
t 19 /NodeList/0/DeviceList/0/$ns3::WifiNetDevice/Phy/Tx ns3::WifiMacHeader (DATA ToDS=0, FromDS=0, MoreFrag=0, Retry=0, MoreData=0 Duration/ID=120usDA=00:00:00:00:00:02, SA=00:00:00:00:00:01, BSSID=00:00:00:00:00:01, FragNumber=0, SeqNumber=19) ns3::LlcSnapHeader (type 0x800) ns3::Ipv4Header (tos 0x0 DSCP Default ECN Not-ECT ttl 64 id 18 protocol 17 offset (bytes) 0 flags [none] length: 284 10.0.0.1 > 10.0.0.2) ns3::UdpHeader (length: 264 49153 > 4000) Payload (size=256) ns3::WifiMacTrailer ()
r 19.0005 /NodeList/1/DeviceList/0/$ns3::WifiNetDevice/Phy/RxOk ns3::Ipv4Header (tos 0x0 DSCP Default ECN Not-ECT ttl 64 id 18 protocol 17 offset (bytes) 0 flags [none] length: 284 10.0.0.1 > 10.0.0.2) ns3::UdpHeader (length: 264 49153 > 4000) Payload (size=256)
t 19.0005 /NodeList/1/DeviceList/0/$ns3::WifiNetDevice/Phy/Tx ns3::WifiMacHeader (CTL_ACK Duration/ID=0us, RA=00:00:00:00:00:01) ns3::WifiMacTrailer ()
r 19.0006 /NodeList/0/DeviceList/0/$ns3::WifiNetDevice/Phy/RxOk ns3::WifiMacTrailer ()
t 20 /NodeList/0/DeviceList/0/$ns3::WifiNetDevice/Phy/Tx ns3::WifiMacHeader (DATA ToDS=0, FromDS=0, MoreFrag=0, Retry=0, MoreData=0 Duration/ID=120usDA=00:00:00:00:00:02, SA=00:00:00:00:00:01, BSSID=00:00:00:00:00:01, FragNumber=0, SeqNumber=20) ns3::LlcSnapHeader (type 0x800) ns3::Ipv4Header (tos 0x0 DSCP Default ECN Not-ECT ttl 64 id 19 protocol 17 offset (bytes) 0 flags [none] length: 284 10.0.0.1 > 10.0.0.2) ns3::UdpHeader (length: 264 49153 > 4000) Payload (size=256) ns3::WifiMacTrailer ()
r 20.0005 /NodeList/1/DeviceList/0/$ns3::WifiNetDevice/Phy/RxOk ns3::Ipv4Header (tos 0x0 DSCP Default ECN Not-ECT ttl 64 id 19 protocol 17 offset (bytes) 0 flags [none] length: 284 10.0.0.1 > 10.0.0.2) ns3::UdpHeader (length: 264 49153 > 4000) Payload (size=256)
t 20.0005 /NodeList/1/DeviceList/0/$ns3::WifiNetDevice/Phy/Tx ns3::WifiMacHeader (CTL_ACK Duration/ID=0us, RA=00:00:00:00:00:01) ns3::WifiMacTrailer ()
r 20.0006 /NodeList/0/DeviceList/0/$ns3::WifiNetDevice/Phy/RxOk ns3::WifiMacTrailer ()
t 21 /NodeList/0/DeviceList/0/$ns3::WifiNetDevice/Phy/Tx ns3::WifiMacHeader (DATA ToDS=0, FromDS=0, MoreFrag=0, Retry=0, MoreData=0 Duration/ID=120usDA=00:00:00:00:00:02, SA=00:00:00:00:00:01, BSSID=00:00:00:00:00:01, FragNumber=0, SeqNumber=21) ns3::LlcSnapHeader (type 0x800) ns3::Ipv4Header (tos 0x0 DSCP Default ECN Not-ECT ttl 64 id 20 protocol 17 offset (bytes) 0 flags [none] length: 284 10.0.0.1 > 10.0.0.2) ns3::UdpHeader (length: 264 49153 > 4000) Payload (size=256) ns3::WifiMacTrailer ()
r 21.0005 /NodeList/1/DeviceList/0/$ns3::WifiNetDevice/Phy/RxOk ns3::Ipv4Header (tos 0x0 DSCP Default ECN Not-ECT ttl 64 id 20 protocol 17 offset (bytes) 0 flags [none] length: 284 10.0.0.1 > 10.0.0.2) ns3::UdpHeader (length: 264 49153 > 4000) Payload (size=256)
t 21.0005 /NodeList/1/DeviceList/0/$ns3::WifiNetDevice/Phy/Tx ns3::WifiMacHeader (CTL_ACK Duration/ID=0us, RA=00:00:00:00:00:01) ns3::WifiMacTrailer ()
r 21.0006 /NodeList/0/DeviceList/0/$ns3::WifiNetDevice/Phy/RxOk ns3::WifiMacTrailer ()
t 22 /NodeList/0/DeviceList/0/$ns3::WifiNetDevice/Phy/Tx ns3::WifiMacHeader (DATA ToDS=0, FromDS=0, MoreFrag=0, Retry=0, MoreData=0 Duration/ID=120usDA=00:00:00:00:00:02, SA=00:00:00:00:00:01, BSSID=00:00:00:00:00:01, FragNumber=0, SeqNumber=22) ns3::LlcSnapHeader (type 0x800) ns3::Ipv4Header (tos 0x0 DSCP Default ECN Not-ECT ttl 64 id 21 protocol 17 offset (bytes) 0 flags [none] length: 284 10.0.0.1 > 10.0.0.2) ns3::UdpHeader (length: 264 49153 > 4000) Payload (size=256) ns3::WifiMacTrailer ()
r 22.0005 /NodeList/1/DeviceList/0/$ns3::WifiNetDevice/Phy/RxOk ns3::Ipv4Header (tos 0x0 DSCP Default ECN Not-ECT ttl 64 id 21 protocol 17 offset (bytes) 0 flags [none] length: 284 10.0.0.1 > 10.0.0.2) ns3::UdpHeader (length: 264 49153 > 4000) Payload (size=256)
t 22.0005 /NodeList/1/DeviceList/0/$ns3::WifiNetDevice/Phy/Tx ns3::WifiMacHeader (CTL_ACK Duration/ID=0us, RA=00:00:00:00:00:01) ns3::WifiMacTrailer ()
r 22.0006 /NodeList/0/DeviceList/0/$ns3::WifiNetDevice/Phy/RxOk ns3::WifiMacTrailer ()
t 23 /NodeList/0/DeviceList/0/$ns3::WifiNetDevice/Phy/Tx ns3::WifiMacHeader (DATA ToDS=0, FromDS=0, MoreFrag=0, Retry=0, MoreData=0 Duration/ID=120usDA=00:00:00:00:00:02, SA=00:00:00:00:00:01, BSSID=00:00:00:00:00:01, FragNumber=0, SeqNumber=23) ns3::LlcSnapHeader (type 0x800) ns3::Ipv4Header (tos 0x0 DSCP Default ECN Not-ECT ttl 64 id 22 protocol 17 offset (bytes) 0 flags [none] length: 284 10.0.0.1 > 10.0.0.2) ns3::UdpHeader (length: 264 49153 > 4000) Payload (size=256) ns3::WifiMacTrailer ()
r 23.0005 /NodeList/1/DeviceList/0/$ns3::WifiNetDevice/Phy/RxOk ns3::Ipv4Header (tos 0x0 DSCP Default ECN Not-ECT ttl 64 id 22 protocol 17 offset (bytes) 0 flags [none] length: 284 10.0.0.1 > 10.0.0.2) ns3::UdpHeader (length: 264 49153 > 4000) Payload (size=256)
t 23.0005 /NodeList/1/DeviceList/0/$ns3::WifiNetDevice/Phy/Tx ns3::WifiMacHeader (CTL_ACK Duration/ID=0us, RA=00:00:00:00:00:01) ns3::WifiMacTrailer ()
r 23.0006 /NodeList/0/DeviceList/0/$ns3::WifiNetDevice/Phy/RxOk ns3::WifiMacTrailer ()
t 24 /NodeList/0/DeviceList/0/$ns3::WifiNetDevice/Phy/Tx ns3::WifiMacHeader (DATA ToDS=0, FromDS=0, MoreFrag=0, Retry=0, MoreData=0 Duration/ID=120usDA=00:00:00:00:00:02, SA=00:00:00:00:00:01, BSSID=00:00:00:00:00:01, FragNumber=0, SeqNumber=24) ns3::LlcSnapHeader (type 0x800) ns3::Ipv4Header (tos 0x0 DSCP Default ECN Not-ECT ttl 64 id 23 protocol 17 offset (bytes) 0 flags [none] length: 284 10.0.0.1 > 10.0.0.2) ns3::UdpHeader (length: 264 49153 > 4000) Payload (size=256) ns3::WifiMacTrailer ()
r 24.0005 /NodeList/1/DeviceList/0/$ns3::WifiNetDevice/Phy/RxOk ns3::Ipv4Header (tos 0x0 DSCP Default ECN Not-ECT ttl 64 id 23 protocol 17 offset (bytes) 0 flags [none] length: 284 10.0.0.1 > 10.0.0.2) ns3::UdpHeader (length: 264 49153 > 4000) Payload (size=256)
t 24.0005 /NodeList/1/DeviceList/0/$ns3::WifiNetDevice/Phy/Tx ns3::WifiMacHeader (CTL_ACK Duration/ID=0us, RA=00:00:00:00:00:01) ns3::WifiMacTrailer ()
r 24.0006 /NodeList/0/DeviceList/0/$ns3::WifiNetDevice/Phy/RxOk ns3::WifiMacTrailer ()
t 25 /NodeList/0/DeviceList/0/$ns3::WifiNetDevice/Phy/Tx ns3::WifiMacHeader (DATA ToDS=0, FromDS=0, MoreFrag=0, Retry=0, MoreData=0 Duration/ID=120usDA=00:00:00:00:00:02, SA=00:00:00:00:00:01, BSSID=00:00:00:00:00:01, FragNumber=0, SeqNumber=25) ns3::LlcSnapHeader (type 0x800) ns3::Ipv4Header (tos 0x0 DSCP Default ECN Not-ECT ttl 64 id 24 protocol 17 offset (bytes) 0 flags [none] length: 284 10.0.0.1 > 10.0.0.2) ns3::UdpHeader (length: 264 49153 > 4000) Payload (size=256) ns3::WifiMacTrailer ()
r 25.0005 /NodeList/1/DeviceList/0/$ns3::WifiNetDevice/Phy/RxOk ns3::Ipv4Header (tos 0x0 DSCP Default ECN Not-ECT ttl 64 id 24 protocol 17 offset (bytes) 0 flags [none] length: 284 10.0.0.1 > 10.0.0.2) ns3::UdpHeader (length: 264 49153 > 4000) Payload (size=256)
t 25.0005 /NodeList/1/DeviceList/0/$ns3::WifiNetDevice/Phy/Tx ns3::WifiMacHeader (CTL_ACK Duration/ID=0us, RA=00:00:00:00:00:01) ns3::WifiMacTrailer ()
r 25.0006 /NodeList/0/DeviceList/0/$ns3::WifiNetDevice/Phy/RxOk ns3::WifiMacTrailer ()
t 26 /NodeList/0/DeviceList/0/$ns3::WifiNetDevice/Phy/Tx ns3::WifiMacHeader (DATA ToDS=0, FromDS=0, MoreFrag=0, Retry=0, MoreData=0 Duration/ID=120usDA=00:00:00:00:00:02, SA=00:00:00:00:00:01, BSSID=00:00:00:00:00:01, FragNumber=0, SeqNumber=26) ns3::LlcSnapHeader (type 0x800) ns3::Ipv4Header (tos 0x0 DSCP Default ECN Not-ECT ttl 64 id 25 protocol 17 offset (bytes) 0 flags [none] length: 284 10.0.0.1 > 10.0.0.2) ns3::UdpHeader (length: 264 49153 > 4000) Payload (size=256) ns3::WifiMacTrailer ()
r 26.0005 /NodeList/1/DeviceList/0/$ns3::WifiNetDevice/Phy/RxOk ns3::Ipv4Header (tos 0x0 DSCP Default ECN Not-ECT ttl 64 id 25 protocol 17 offset (bytes) 0 flags [none] length: 284 10.0.0.1 > 10.0.0.2) ns3::UdpHeader (length: 264 49153 > 4000) Payload (size=256)
t 26.0005 /NodeList/1/DeviceList/0/$ns3::WifiNetDevice/Phy/Tx ns3::WifiMacHeader (CTL_ACK Duration/ID=0us, RA=00:00:00:00:00:01) ns3::WifiMacTrailer ()
r 26.0006 /NodeList/0/DeviceList/0/$ns3::WifiNetDevice/Phy/RxOk ns3::WifiMacTrailer ()
t 27 /NodeList/0/DeviceList/0/$ns3::WifiNetDevice/Phy/Tx ns3::WifiMacHeader (DATA ToDS=0, FromDS=0, MoreFrag=0, Retry=0, MoreData=0 Duration/ID=120usDA=00:00:00:00:00:02, SA=00:00:00:00:00:01, BSSID=00:00:00:00:00:01, FragNumber=0, SeqNumber=27) ns3::LlcSnapHeader (type 0x800) ns3::Ipv4Header (tos 0x0 DSCP Default ECN Not-ECT ttl 64 id 26 protocol 17 offset (bytes) 0 flags [none] length: 284 10.0.0.1 > 10.0.0.2) ns3::UdpHeader (length: 264 49153 > 4000) Payload (size=256) ns3::WifiMacTrailer ()
r 27.0005 /NodeList/1/DeviceList/0/$ns3::WifiNetDevice/Phy/RxOk ns3::Ipv4Header (tos 0x0 DSCP Default ECN Not-ECT ttl 64 id 26 protocol 17 offset (bytes) 0 flags [none] length: 284 10.0.0.1 > 10.0.0.2) ns3::UdpHeader (length: 264 49153 > 4000) Payload (size=256)
t 27.0005 /NodeList/1/DeviceList/0/$ns3::WifiNetDevice/Phy/Tx ns3::WifiMacHeader (CTL_ACK Duration/ID=0us, RA=00:00:00:00:00:01) ns3::WifiMacTrailer ()
r 27.0006 /NodeList/0/DeviceList/0/$ns3::WifiNetDevice/Phy/RxOk ns3::WifiMacTrailer ()
t 28 /NodeList/0/DeviceList/0/$ns3::WifiNetDevice/Phy/Tx ns3::WifiMacHeader (DATA ToDS=0, FromDS=0, MoreFrag=0, Retry=0, MoreData=0 Duration/ID=120usDA=00:00:00:00:00:02, SA=00:00:00:00:00:01, BSSID=00:00:00:00:00:01, FragNumber=0, SeqNumber=28) ns3::LlcSnapHeader (type 0x800) ns3::Ipv4Header (tos 0x0 DSCP Default ECN Not-ECT ttl 64 id 27 protocol 17 offset (bytes) 0 flags [none] length: 284 10.0.0.1 > 10.0.0.2) ns3::UdpHeader (length: 264 49153 > 4000) Payload (size=256) ns3::WifiMacTrailer ()
r 28.0005 /NodeList/1/DeviceList/0/$ns3::WifiNetDevice/Phy/RxOk ns3::Ipv4Header (tos 0x0 DSCP Default ECN Not-ECT ttl 64 id 27 protocol 17 offset (bytes) 0 flags [none] length: 284 10.0.0.1 > 10.0.0.2) ns3::UdpHeader (length: 264 49153 > 4000) Payload (size=256)
t 28.0005 /NodeList/1/DeviceList/0/$ns3::WifiNetDevice/Phy/Tx ns3::WifiMacHeader (CTL_ACK Duration/ID=0us, RA=00:00:00:00:00:01) ns3::WifiMacTrailer ()
r 28.0006 /NodeList/0/DeviceList/0/$ns3::WifiNetDevice/Phy/RxOk ns3::WifiMacTrailer ()
t 29 /NodeList/0/DeviceList/0/$ns3::WifiNetDevice/Phy/Tx ns3::WifiMacHeader (DATA ToDS=0, FromDS=0, MoreFrag=0, Retry=0, MoreData=0 Duration/ID=120usDA=00:00:00:00:00:02, SA=00:00:00:00:00:01, BSSID=00:00:00:00:00:01, FragNumber=0, SeqNumber=29) ns3::LlcSnapHeader (type 0x800) ns3::Ipv4Header (tos 0x0 DSCP Default ECN Not-ECT ttl 64 id 28 protocol 17 offset (bytes) 0 flags [none] length: 284 10.0.0.1 > 10.0.0.2) ns3::UdpHeader (length: 264 49153 > 4000) Payload (size=256) ns3::WifiMacTrailer ()