t 1 /NodeList/0/DeviceList/0/$ns3::WifiNetDevice/Phy/Tx ns3::WifiMacHeader (DATA ToDS=0, FromDS=0, MoreFrag=0, Retry=0, MoreData=0 Duration/ID=0usDA=ff:ff:ff:ff:ff:ff, SA=00:00:00:00:00:01, BSSID=00:00:00:00:00:01, FragNumber=0, SeqNumber=0) ns3::LlcSnapHeader (type 0x806) ns3::ArpHeader (request source mac: 00-06-00:00:00:00:00:01 source ipv4: 10.0.0.1 dest ipv4: 10.0.0.2) ns3::WifiMacTrailer ()
r 1.00014 /NodeList/1/DeviceList/0/$ns3::WifiNetDevice/Phy/RxOk ns3::ArpHeader (request source mac: 00-06-00:00:00:00:00:01 source ipv4: 10.0.0.1 dest ipv4: 10.0.0.2)
t 1.00019 /NodeList/1/DeviceList/0/$ns3::WifiNetDevice/Phy/Tx ns3::WifiMacHeader (DATA ToDS=0, FromDS=0, MoreFrag=0, Retry=0, MoreData=0 Duration/ID=120usDA=00:00:00:00:00:01, SA=00:00:00:00:00:02, BSSID=00:00:00:00:00:02, FragNumber=0, SeqNumber=0) ns3::LlcSnapHeader (type 0x806) ns3::ArpHeader (reply source mac: 00-06-00:00:00:00:00:02 source ipv4: 10.0.0.2 dest mac: 00-06-00:00:00:00:00:01 dest ipv4: 10.0.0.1) ns3::WifiMacTrailer ()
r 1.00033 /NodeList/0/DeviceList/0/$ns3::WifiNetDevice/Phy/RxOk ns3::ArpHeader (reply source mac: 00-06-00:00:00:00:00:02 source ipv4: 10.0.0.2 dest mac: 00-06-00:00:00:00:00:01 dest ipv4: 10.0.0.1)
t 1.00036 /NodeList/0/DeviceList/0/$ns3::WifiNetDevice/Phy/Tx ns3::WifiMacHeader (CTL_ACK Duration/ID=0us, RA=00:00:00:00:00:02) ns3::WifiMacTrailer ()
r 1.00045 /NodeList/1/DeviceList/0/$ns3::WifiNetDevice/Phy/RxOk ns3::WifiMacTrailer ()
t 1.00061 /NodeList/0/DeviceList/0/$ns3::WifiNetDevice/Phy/Tx ns3::WifiMacHeader (DATA ToDS=0, FromDS=0, MoreFrag=0, Retry=0, MoreData=0 Duration/ID=120usDA=00:00:00:00:00:02, SA=00:00:00:00:00:01, BSSID=00:00:00:00:00:01, FragNumber=0, SeqNumber=1) ns3::LlcSnapHeader (type 0x800) ns3::Ipv4Header (tos 0x0 DSCP Default ECN Not-ECT ttl 64 id 0 protocol 17 offset (bytes) 0 flags [none] length: 284 10.0.0.1 > 10.0.0.2) ns3::UdpHeader (length: 264 49153 > 4000) Payload (size=256) ns3::WifiMacTrailer ()
r 1.00108 /NodeList/1/DeviceList/0/$ns3::WifiNetDevice/Phy/RxOk ns3::Ipv4Header (tos 0x0 DSCP Default ECN Not-ECT ttl 64 id 0 protocol 17 offset (bytes) 0 flags [none] length: 284 10.0.0.1 > 10.0.0.2) ns3::UdpHeader (length: 264 49153 > 4000) Payload (size=256)
t 1.00112 /NodeList/1/DeviceList/0/$ns3::WifiNetDevice/Phy/Tx ns3::WifiMacHeader (CTL_ACK Duration/ID=0us, RA=00:00:00:00:00:01) ns3::WifiMacTrailer ()
r 1.0012 /NodeList/0/DeviceList/0/$ns3::WifiNetDevice/Phy/RxOk ns3::WifiMacTrailer ()
t 2 /NodeList/0/DeviceList/0/$ns3::WifiNetDevice/Phy/Tx ns3::WifiMacHeader (DATA ToDS=0, FromDS=0, MoreFrag=0, Retry=0, MoreData=0 Duration/ID=120usDA=00:00:00:00:00:02, SA=00:00:00:00:00:01, BSSID=00:00:00:00:00:01, FragNumber=0, SeqNumber=2) ns3::LlcSnapHeader (type 0x800) ns3::Ipv4Header (tos 0x0 DSCP Default ECN Not-ECT ttl 64 id 1 protocol 17 offset (bytes) 0 flags [none] length: 284 10.0.0.1 > 10.0.0.2) ns3::UdpHeader (length: 264 49153 > 4000) Payload (size=256) ns3::WifiMacTrailer ()
r 2.00047 /NodeList/1/DeviceList/0/$ns3::WifiNetDevice/Phy/RxOk ns3::Ipv4Header (tos 0x0 DSCP Default ECN Not-ECT ttl 64 id 1 protocol 17 offset (bytes) 0 flags [none] length: 284 10.0.0.1 > 10.0.0.2) ns3::UdpHeader (length: 264 49153 > 4000) Payload (size=256)
t 2.0005 /NodeList/1/DeviceList/0/$ns3::WifiNetDevice/Phy/Tx ns3::WifiMacHeader (CTL_ACK Duration/ID=0us, RA=00:00:00:00:00:01) ns3::WifiMacTrailer ()
r 2.00059 /NodeList/0/DeviceList/0/$ns3::WifiNetDevice/Phy/RxOk ns3::WifiMacTrailer ()
t 3 /NodeList/0/DeviceList/0/$ns3::WifiNetDevice/Phy/Tx ns3::WifiMacHeader (DATA ToDS=0, FromDS=0, MoreFrag=0, Retry=0, MoreData=0 Duration/ID=120usDA=00:00:00:00:00:02, SA=00:00:00:00:00:01, BSSID=00:00:00:00:00:01, FragNumber=0, SeqNumber=3) ns3::LlcSnapHeader (type 0x800) ns3::Ipv4Header (tos 0x0 DSCP Default ECN Not-ECT ttl 64 id 2 protocol 17 offset (bytes) 0 flags [none] length: 284 10.0.0.1 > 10.0.0.2) ns3::UdpHeader (length: 264 49153 > 4000) Payload (size=256) ns3::WifiMacTrailer ()
r 3.00047 /NodeList/1/DeviceList/0/$ns3::WifiNetDevice/Phy/RxOk ns3::Ipv4Header (tos 0x0 DSCP Default ECN Not-ECT ttl 64 id 2 protocol 17 offset (bytes) 0 flags [none] length: 284 10.0.0.1 > 10.0.0.2) ns3::UdpHeader (length: 264 49153 > 4000) Payload (size=256)
t 3.0005 /NodeList/1/DeviceList/0/$ns3::WifiNetDevice/Phy/Tx ns3::WifiMacHeader (CTL_ACK Duration/ID=0us, RA=00:00:00:00:00:01) ns3::WifiMacTrailer ()
r 3.00059 /NodeList/0/DeviceList/0/$ns3::WifiNetDevice/Phy/RxOk ns3::WifiMacTrailer ()
t 4 /NodeList/0/DeviceList/0/$ns3::WifiNetDevice/Phy/Tx ns3::WifiMacHeader (DATA ToDS=0, FromDS=0, MoreFrag=0, Retry=0, MoreData=0 Duration/ID=120usDA=00:00:00:00:00:02, SA=00:00:00:00:00:01, BSSID=00:00:00:00:00:01, FragNumber=0, SeqNumber=4) ns3::LlcSnapHeader (type 0x800) ns3::Ipv4Header (tos 0x0 DSCP Default ECN Not-ECT ttl 64 id 3 protocol 17 offset (bytes) 0 flags [none] length: 284 10.0.0.1 > 10.0.0.2) ns3::UdpHeader (length: 264 49153 > 4000) Payload (size=256) ns3::WifiMacTrailer ()
r 4.00047 /NodeList/1/DeviceList/0/$ns3::WifiNetDevice/Phy/RxOk ns3::Ipv4Header (tos 0x0 DSCP Default ECN Not-ECT ttl 64 id 3 protocol 17 offset (bytes) 0 flags [none] length: 284 10.0.0.1 > 10.0.0.2) ns3::UdpHeader (length: 264 49153 > 4000) Payload (size=256)
t 4.0005 /NodeList/1/DeviceList/0/$ns3::WifiNetDevice/Phy/Tx ns3::WifiMacHeader (CTL_ACK Duration/ID=0us, RA=00:00:00:00:00:01) ns3::WifiMacTrailer ()
r 4.00059 /NodeList/0/DeviceList/0/$ns3::WifiNetDevice/Phy/RxOk ns3::WifiMacTrailer ()
t 5 /NodeList/0/DeviceList/0/$ns3::WifiNetDevice/Phy/Tx ns3::WifiMacHeader (DATA ToDS=0, FromDS=0, MoreFrag=0, Retry=0, MoreData=0 Duration/ID=120usDA=00:00:00:00:00:02, SA=00:00:00:00:00:01, BSSID=00:00:00:00:00:01, FragNumber=0, SeqNumber=5) ns3::LlcSnapHeader (type 0x800) ns3::Ipv4Header (tos 0x0 DSCP Default ECN Not-ECT ttl 64 id 4 protocol 17 offset (bytes) 0 flags [none] length: 284 10.0.0.1 > 10.0.0.2) ns3::UdpHeader (length: 264 49153 > 4000) Payload (size=256) ns3::WifiMacTrailer ()
r 5.00047 /NodeList/1/DeviceList/0/$ns3::WifiNetDevice/Phy/RxOk ns3::Ipv4Header (tos 0x0 DSCP Default ECN Not-ECT ttl 64 id 4 protocol 17 offset (bytes) 0 flags [none] length: 284 10.0.0.1 > 10.0.0.2) ns3::UdpHeader (length: 264 49153 > 4000) Payload (size=256)
t 5.0005 /NodeList/1/DeviceList/0/$ns3::WifiNetDevice/Phy/Tx ns3::WifiMacHeader (CTL_ACK Duration/ID=0us, RA=00:00:00:00:00:01) ns3::WifiMacTrailer ()
r 5.00059 /NodeList/0/DeviceList/0/$ns3::WifiNetDevice/Phy/RxOk ns3::WifiMacTrailer ()
t 6 /NodeList/0/DeviceList/0/$ns3::WifiNetDevice/Phy/Tx ns3::WifiMacHeader (DATA ToDS=0, FromDS=0, MoreFrag=0, Retry=0, MoreData=0 Duration/ID=120usDA=00:00:00:00:00:02, SA=00:00:00:00:00:01, BSSID=00:00:00:00:00:01, FragNumber=0, SeqNumber=6) ns3::LlcSnapHeader (type 0x800) ns3::Ipv4Header (tos 0x0 DSCP Default ECN Not-ECT ttl 64 id 5 protocol 17 offset (bytes) 0 flags [none] length: 284 10.0.0.1 > 10.0.0.2) ns3::UdpHeader (length: 264 49153 > 4000) Payload (size=256) ns3::WifiMacTrailer ()
r 6.00047 /NodeList/1/DeviceList/0/$ns3::WifiNetDevice/Phy/RxOk ns3::Ipv4Header (tos 0x0 DSCP Default ECN Not-ECT ttl 64 id 5 protocol 17 offset (bytes) 0 flags [none] length: 284 10.0.0.1 > 10.0.0.2) ns3::UdpHeader (length: 264 49153 > 4000) Payload (size=256)
t 6.0005 /NodeList/1/DeviceList/0/$ns3::WifiNetDevice/Phy/Tx ns3::WifiMacHeader (CTL_ACK Duration/ID=0us, RA=00:00:00:00:00:01) ns3::WifiMacTrailer ()
r 6.00059 /NodeList/0/DeviceList/0/$ns3::WifiNetDevice/Phy/RxOk ns3::WifiMacTrailer ()
t 7 /NodeList/0/DeviceList/0/$ns3::WifiNetDevice/Phy/Tx ns3::WifiMacHeader (DATA ToDS=0, FromDS=0, MoreFrag=0, Retry=0, MoreData=0 Duration/ID=120usDA=00:00:00:00:00:02, SA=00:00:00:00:00:01, BSSID=00:00:00:00:00:01, FragNumber=0, SeqNumber=7) ns3::LlcSnapHeader (type 0x800) ns3::Ipv4Header (tos 0x0 DSCP Default ECN Not-ECT ttl 64 id 6 protocol 17 offset (bytes) 0 flags [none] length: 284 10.0.0.1 > 10.0.0.2) ns3::UdpHeader (length: 264 49153 > 4000) Payload (size=256) ns3::WifiMacTrailer ()
r 7.00047 /NodeList/1/DeviceList/0/$ns3::WifiNetDevice/Phy/RxOk ns3::Ipv4Header (tos 0x0 DSCP Default ECN Not-ECT ttl 64 id 6 protocol 17 offset (bytes) 0 flags [none] length: 284 10.0.0.1 > 10.0.0.2) ns3::UdpHeader (length: 264 49153 > 4000) Payload (size=256)
t 7.0005 /NodeList/1/DeviceList/0/$ns3::WifiNetDevice/Phy/Tx ns3::WifiMacHeader (CTL_ACK Duration/ID=0us, RA=00:00:00:00:00:01) ns3::WifiMacTrailer ()
r 7.00059 /NodeList/0/DeviceList/0/$ns3::WifiNetDevice/Phy/RxOk ns3::WifiMacTrailer ()
t 8 /NodeList/0/DeviceList/0/$ns3::WifiNetDevice/Phy/Tx ns3::WifiMacHeader (DATA ToDS=0, FromDS=0, MoreFrag=0, Retry=0, MoreData=0 Duration/ID=120usDA=00:00:00:00:00:02, SA=00:00:00:00:00:01, BSSID=00:00:00:00:00:01, FragNumber=0, SeqNumber=8) ns3::LlcSnapHeader (type 0x800) ns3::Ipv4Header (tos 0x0 DSCP Default ECN Not-ECT ttl 64 id 7 protocol 17 offset (bytes) 0 flags [none] length: 284 10.0.0.1 > 10.0.0.2) ns3::UdpHeader (length: 264 49153 > 4000) Payload (size=256) ns3::WifiMacTrailer ()
r 8.00047 /NodeList/1/DeviceList/0/$ns3::WifiNetDevice/Phy/RxOk ns3::Ipv4Header (tos 0x0 DSCP Default ECN Not-ECT ttl 64 id 7 protocol 17 offset (bytes) 0 flags [none] length: 284 10.0.0.1 > 10.0.0.2) ns3::UdpHeader (length: 264 49153 > 4000) Payload (size=256)
t 8.0005 /NodeList/1/DeviceList/0/$ns3::WifiNetDevice/Phy/Tx ns3::WifiMacHeader (CTL_ACK Duration/ID=0us, RA=00:00:00:00:00:01) ns3::WifiMacTrailer ()
r 8.00059 /NodeList/0/DeviceList/0/$ns3::WifiNetDevice/Phy/RxOk ns3::WifiMacTrailer ()
t 9 /NodeList/0/DeviceList/0/$ns3::WifiNetDevice/Phy/Tx ns3::WifiMacHeader (DATA ToDS=0, FromDS=0, MoreFrag=0, Retry=0, MoreData=0 Duration/ID=120usDA=00:00:00:00:00:02, SA=00:00:00:00:00:01, BSSID=00:00:00:00:00:01, FragNumber=0, SeqNumber=9) ns3::LlcSnapHeader (type 0x800) ns3::Ipv4Header (tos 0x0 DSCP Default ECN Not-ECT ttl 64 id 8 protocol 17 offset (bytes) 0 flags [none] length: 284 10.0.0.1 > 10.0.0.2) ns3::UdpHeader (length: 264 49153 > 4000) Payload (size=256) ns3::WifiMacTrailer ()
r 9.00047 /NodeList/1/DeviceList/0/$ns3::WifiNetDevice/Phy/RxOk ns3::Ipv4Header (tos 0x0 DSCP Default ECN Not-ECT ttl 64 id 8 protocol 17 offset (bytes) 0 flags [none] length: 284 10.0.0.1 > 10.0.0.2) ns3::UdpHeader (length: 264 49153 > 4000) Payload (size=256)
t 9.0005 /NodeList/1/DeviceList/0/$ns3::WifiNetDevice/Phy/Tx ns3::WifiMacHeader (CTL_ACK Duration/ID=0us, RA=00:00:00:00:00:01) ns3::WifiMacTrailer ()
r 9.00059 /NodeList/0/DeviceList/0/$ns3::WifiNetDevice/Phy/RxOk ns3::WifiMacTrailer ()
t 10 /NodeList/0/DeviceList/0/$ns3::WifiNetDevice/Phy/Tx ns3::WifiMacHeader (DATA ToDS=0, FromDS=0, MoreFrag=0, Retry=0, MoreData=0 Duration/ID=120usDA=00:00:00:00:00:02, SA=00:00:00:00:00:01, BSSID=00:00:00:00:00:01, FragNumber=0, SeqNumber=10) ns3::LlcSnapHeader (type 0x800) ns3::Ipv4Header (tos 0x0 DSCP Default ECN Not-ECT ttl 64 id 9 protocol 17 offset (bytes) 0 flags [none] length: 284 10.0.0.1 > 10.0.0.2) ns3::UdpHeader (length: 264 49153 > 4000) Payload (size=256) ns3::WifiMacTrailer ()
r 10.0005 /NodeList/1/DeviceList/0/$ns3::WifiNetDevice/Phy/RxOk ns3::Ipv4Header (tos 0x0 DSCP Default ECN Not-ECT ttl 64 id 9 protocol 17 offset (bytes) 0 flags [none] length: 284 10.0.0.1 > 10.0.0.2) ns3::UdpHeader (length: 264 49153 > 4000) Payload (size=256)
t 10.0005 /NodeList/1/DeviceList/0/$ns3::WifiNetDevice/Phy/Tx ns3::WifiMacHeader (CTL_ACK Duration/ID=0us, RA=00:00:00:00:00:01) ns3::WifiMacTrailer ()
r 10.0006 /NodeList/0/DeviceList/0/$ns3::WifiNetDevice/Phy/RxOk ns3::WifiMacTrailer ()
t 11 /NodeList/0/DeviceList/0/$ns3::WifiNetDevice/Phy/Tx ns3::WifiMacHeader (DATA ToDS=0, FromDS=0, MoreFrag=0, Retry=0, MoreData=0 Duration/ID=120usDA=00:00:00:00:00:02, SA=00:00:00:00:00:01, BSSID=00:00:00:00:00:01, FragNumber=0, SeqNumber=11) ns3::LlcSnapHeader (type 0x800) ns3::Ipv4Header (tos 0x0 DSCP Default ECN Not-ECT ttl 64 id 10 protocol 17 offset (bytes) 0 flags [none] length: 284 10.0.0.1 > 10.0.0.2) ns3::UdpHeader (length: 264 49153 > 4000) Payload (size=256) ns3::WifiMacTrailer ()
r 11.0005 /NodeList/1/DeviceList/0/$ns3::WifiNetDevice/Phy/RxOk ns3::Ipv4Header (tos 0x0 DSCP Default ECN Not-ECT ttl 64 id 10 protocol 17 offset (bytes) 0 flags [none] length: 284 10.0.0.1 > 10.0.0.2) ns3::UdpHeader (length: 264 49153 > 4000) Payload (size=256)
t 11.0005 /NodeList/1/DeviceList/0/$ns3::WifiNetDevice/Phy/Tx ns3::WifiMacHeader (CTL_ACK Duration/ID=0us, RA=00:00:00:00:00:01) ns3::WifiMacTrailer ()
r 11.0006 /NodeList/0/DeviceList/0/$ns3::WifiNetDevice/Phy/RxOk ns3::WifiMacTrailer ()
t 12 /NodeList/0/DeviceList/0/$ns3::WifiNetDevice/Phy/Tx ns3::WifiMacHeader (DATA ToDS=0, FromDS=0, MoreFrag=0, Retry=0, MoreData=0 Duration/ID=120usDA=00:00:00:00:00:02, SA=00:00:00:00:00:01, BSSID=00:00:00:00:00:01, FragNumber=0, SeqNumber=12) ns3::LlcSnapHeader (type 0x800) ns3::Ipv4Header (tos 0x0 DSCP Default ECN Not-ECT ttl 64 id 11 protocol 17 offset (bytes) 0 flags [none] length: 284 10.0.0.1 > 10.0.0.2) ns3::UdpHeader (length: 264 49153 > 4000) Payload (size=256) ns3::WifiMacTrailer ()
t 12.0009 /NodeList/0/DeviceList/0/$ns3::WifiNetDevice/Phy/Tx ns3::WifiMacHeader (DATA ToDS=0, FromDS=0, MoreFrag=0, Retry=1, MoreData=0 Duration/ID=120usDA=00:00:00:00:00:02, SA=00:00:00:00:00:01, BSSID=00:00:00:00:00:01, FragNumber=0, SeqNumber=12) ns3::LlcSnapHeader (type 0x800) ns3::Ipv4Header (tos 0x0 DSCP Default ECN Not-ECT ttl 64 id 11 protocol 17 offset (bytes) 0 flags [none] length: 284 10.0.0.1 > 10.0.0.2) ns3::UdpHeader (length: 264 49153 > 4000) Payload (size=256) ns3::WifiMacTrailer ()
t 12.0017 /NodeList/0/DeviceList/0/$ns3::WifiNetDevice/Phy/Tx ns3::WifiMacHeader (DATA ToDS=0, FromDS=0, MoreFrag=0, Retry=1, MoreData=0 Duration/ID=120usDA=00:00:00:00:00:02, SA=00:00:00:00:00:01, BSSID=00:00:00:00:00:01, FragNumber=0, SeqNumber=12) ns3::LlcSnapHeader (type 0x800) ns3::Ipv4Header (tos 0x0 DSCP Default ECN Not-ECT ttl 64 id 11 protocol 17 offset (bytes) 0 flags [none] length: 284 10.0.0.1 > 10.0.0.2) ns3::UdpHeader (length: 264 49153 > 4000) Payload (size=256) ns3::WifiMacTrailer ()
t 12.0038 /NodeList/0/DeviceList/0/$ns3::WifiNetDevice/Phy/Tx ns3::WifiMacHeader (DATA ToDS=0, FromDS=0, MoreFrag=0, Retry=1, MoreData=0 Duration/ID=120usDA=00:00:00:00:00:02, SA=00:00:00:00:00:01, BSSID=00:00:00:00:00:01, FragNumber=0, SeqNumber=12) ns3::LlcSnapHeader (type 0x800) ns3::Ipv4Header (tos 0x0 DSCP Default ECN Not-ECT ttl 64 id 11 protocol 17 offset (bytes) 0 flags [none] length: 284 10.0.0.1 > 10.0.0.2) ns3::UdpHeader (length: 264 49153 > 4000) Payload (size=256) ns3::WifiMacTrailer ()
t 12.0045 /NodeList/0/DeviceList/0/$ns3::WifiNetDevice/Phy/Tx ns3::WifiMacHeader (DATA ToDS=0, FromDS=0, MoreFrag=0, Retry=1, MoreData=0 Duration/ID=120usDA=00:00:00:00:00:02, SA=00:00:00:00:00:01, BSSID=00:00:00:00:00:01, FragNumber=0, SeqNumber=12) ns3::LlcSnapHeader (type 0x800) ns3::Ipv4Header (tos 0x0 DSCP Default ECN Not-ECT ttl 64 id 11 protocol 17 offset (bytes) 0 flags [none] length: 284 10.0.0.1 > 10.0.0.2) ns3::UdpHeader (length: 264 49153 > 4000) Payload (size=256) ns3::WifiMacTrailer ()
t 12.0092 /NodeList/0/DeviceList/0/$ns3::WifiNetDevice/Phy/Tx ns3::WifiMacHeader (DATA ToDS=0, FromDS=0, MoreFrag=0, Retry=1, MoreData=0 Duration/ID=120usDA=00:00:00:00:00:02, SA=00:00:00:00:00:01, BSSID=00:00:00:00:00:01, FragNumber=0, SeqNumber=12) ns3::LlcSnapHeader (type 0x800) ns3::Ipv4Header (tos 0x0 DSCP Default ECN Not-ECT ttl 64 id 11 protocol 17 offset (bytes) 0 flags [none] length: 284 10.0.0.1 > 10.0.0.2) ns3::UdpHeader (length: 264 49153 > 4000) Payload (size=256) ns3::WifiMacTrailer ()
t 12.0144 /NodeList/0/DeviceList/0/$ns3::WifiNetDevice/Phy/Tx ns3::WifiMacHeader (DATA ToDS=0, FromDS=0, MoreFrag=0, Retry=1, MoreData=0 Duration/ID=120usDA=00:00:00:00:00:02, SA=00:00:00:00:00:01, BSSID=00:00:00:00:00:01, FragNumber=0, SeqNumber=12) ns3::LlcSnapHeader (type 0x800) ns3::Ipv4Header (tos 0x0 DSCP Default ECN Not-ECT ttl 64 id 11 protocol 17 offset (bytes) 0 flags [none] length: 284 10.0.0.1 > 10.0.0.2) ns3::UdpHeader (length: 264 49153 > 4000) Payload (size=256) ns3::WifiMacTrailer ()
t 13 /NodeList/0/DeviceList/0/$ns3::WifiNetDevice/Phy/Tx ns3::WifiMacHeader (DATA ToDS=0, FromDS=0, MoreFrag=0, Retry=0, MoreData=0 Duration/ID=120usDA=00:00:00:00:00:02, SA=00:00:00:00:00:01, BSSID=00:00:00:00:00:01, FragNumber=0, SeqNumber=13) ns3::LlcSnapHeader (type 0x800) ns3::Ipv4Header (tos 0x0 DSCP Default ECN Not-ECT ttl 64 id 12 protocol 17 offset (bytes) 0 flags [none] length: 284 10.0.0.1 > 10.0.0.2) ns3::UdpHeader (length: 264 49153 > 4000) Payload (size=256) ns3::WifiMacTrailer ()
t 13.0009 /NodeList/0/DeviceList/0/$ns3::WifiNetDevice/Phy/Tx ns3::WifiMacHeader (DATA ToDS=0, FromDS=0, MoreFrag=0, Retry=1, MoreData=0 Duration/ID=120usDA=00:00:00:00:00:02, SA=00:00:00:00:00:01, BSSID=00:00:00:00:00:01, FragNumber=0, SeqNumber=13) ns3::LlcSnapHeader (type 0x800) ns3::Ipv4Header (tos 0x0 DSCP Default ECN Not-ECT ttl 64 id 12 protocol 17 offset (bytes) 0 flags [none] length: 284 10.0.0.1 > 10.0.0.2) ns3::UdpHeader (length: 264 49153 > 4000) Payload (size=256) ns3::WifiMacTrailer ()
t 13.0021 /NodeList/0/DeviceList/0/$ns3::WifiNetDevice/Phy/Tx ns3::WifiMacHeader (DATA ToDS=0, FromDS=0, MoreFrag=0, Retry=1, MoreData=0 Duration/ID=120usDA=00:00:00:00:00:02, SA=00:00:00:00:00:01, BSSID=00:00:00:00:00:01, FragNumber=0, SeqNumber=13) ns3::LlcSnapHeader (type 0x800) ns3::Ipv4Header (tos 0x0 DSCP Default ECN Not-ECT ttl 64 id 12 protocol 17 offset (bytes) 0 flags [none] length: 284 10.0.0.1 > 10.0.0.2) ns3::UdpHeader (length: 264 49153 > 4000) Payload (size=256) ns3::WifiMacTrailer ()
t 13.0038 /NodeList/0/DeviceList/0/$ns3::WifiNetDevice/Phy/Tx ns3::WifiMacHeader (DATA ToDS=0, FromDS=0, MoreFrag=0, Retry=1, MoreData=0 Duration/ID=120usDA=00:00:00:00:00:02, SA=00:00:00:00:00:01, BSSID=00:00:00:00:00:01, FragNumber=0, SeqNumber=13) ns3::LlcSnapHeader (type 0x800) ns3::Ipv4Header (tos 0x0 DSCP Default ECN Not-ECT ttl 64 id 12 protocol 17 offset (bytes) 0 flags [none] length: 284 10.0.0.1 > 10.0.0.2) ns3::UdpHeader (length: 264 49153 > 4000) Payload (size=256) ns3::WifiMacTrailer ()
t 13.0069 /NodeList/0/DeviceList/0/$ns3::WifiNetDevice/Phy/Tx ns3::WifiMacHeader (DATA ToDS=0, FromDS=0, MoreFrag=0, Retry=1, MoreData=0 Duration/ID=120usDA=00:00:00:00:00:02, SA=00:00:00:00:00:01, BSSID=00:00:00:00:00:01, FragNumber=0, SeqNumber=13) ns3::LlcSnapHeader (type 0x800) ns3::Ipv4Header (tos 0x0 DSCP Default ECN Not-ECT ttl 64 id 12 protocol 17 offset (bytes) 0 flags [none] length: 284 10.0.0.1 > 10.0.0.2) ns3::UdpHeader (length: 264 49153 > 4000) Payload (size=256) ns3::WifiMacTrailer ()
t 13.0106 /NodeList/0/DeviceList/0/$ns3::WifiNetDevice/Phy/Tx ns3::WifiMacHeader (DATA ToDS=0, FromDS=0, MoreFrag=0, Retry=1, MoreData=0 Duration/ID=120usDA=00:00:00:00:00:02, SA=00:00:00:00:00:01, BSSID=00:00:00:00:00:01, FragNumber=0, SeqNumber=13) ns3::LlcSnapHeader (type 0x800) ns3::Ipv4Header (tos 0x0 DSCP Default ECN Not-ECT ttl 64 id 12 protocol 17 offset (bytes) 0 flags [none] length: 284 10.0.0.1 > 10.0.0.2) ns3::UdpHeader (length: 264 49153 > 4000) Payload (size=256) ns3::WifiMacTrailer ()
t 13.0141 /NodeList/0/DeviceList/0/$ns3::WifiNetDevice/Phy/Tx ns3::WifiMacHeader (DATA ToDS=0, FromDS=0, MoreFrag=0, Retry=1, MoreData=0 Duration/ID=120usDA=00:00:00:00:00:02, SA=00:00:00:00:00:01, BSSID=00:00:00:00:00:01, FragNumber=0, SeqNumber=13) ns3::LlcSnapHeader (type 0x800) ns3::Ipv4Header (tos 0x0 DSCP Default ECN Not-ECT ttl 64 id 12 protocol 17 offset (bytes) 0 flags [none] length: 284 10.0.0.1 > 10.0.0.2) ns3::UdpHeader (length: 264 49153 > 4000) Payload (size=256) ns3::WifiMacTrailer ()
t 14 /NodeList/0/DeviceList/0/$ns3::WifiNetDevice/Phy/Tx ns3::WifiMacHeader (DATA ToDS=0, FromDS=0, MoreFrag=0, Retry=0, MoreData=0 Duration/ID=120usDA=00:00:00:00:00:02, SA=00:00:00:00:00:01, BSSID=00:00:00:00:00:01, FragNumber=0, SeqNumber=14) ns3::LlcSnapHeader (type 0x800) ns3::Ipv4Header (tos 0x0 DSCP Default ECN Not-ECT ttl 64 id 13 protocol 17 offset (bytes) 0 flags [none] length: 284 10.0.0.1 > 10.0.0.2) ns3::UdpHeader (length: 264 49153 > 4000) Payload (size=256) ns3::WifiMacTrailer ()
t 14.0011 /NodeList/0/DeviceList/0/$ns3::WifiNetDevice/Phy/Tx ns3::WifiMacHeader (DATA ToDS=0, FromDS=0, MoreFrag=0, Retry=1, MoreData=0 Duration/ID=120usDA=00:00:00:00:00:02, SA=00:00:00:00:00:01, BSSID=00:00:00:00:00:01, FragNumber=0, SeqNumber=14) ns3::LlcSnapHeader (type 0x800) ns3::Ipv4Header (tos 0x0 DSCP Default ECN Not-ECT ttl 64 id 13 protocol 17 offset (bytes) 0 flags [none] length: 284 10.0.0.1 > 10.0.0.2) ns3::UdpHeader (length: 264 49153 > 4000) Payload (size=256) ns3::WifiMacTrailer ()
t 14.0019 /NodeList/0/DeviceList/0/$ns3::WifiNetDevice/Phy/Tx ns3::WifiMacHeader (DATA ToDS=0, FromDS=0, MoreFrag=0, Retry=1, MoreData=0 Duration/ID=120usDA=00:00:00:00:00:02, SA=00:00:00:00:00:01, BSSID=00:00:00:00:00:01, FragNumber=0, SeqNumber=14) ns3::LlcSnapHeader (type 0x800) ns3::Ipv4Header (tos 0x0 DSCP Default ECN Not-ECT ttl 64 id 13 protocol 17 offset (bytes) 0 flags [none] length: 284 10.0.0.1 > 10.0.0.2) ns3::UdpHeader (length: 264 49153 > 4000) Payload (size=256) ns3::WifiMacTrailer ()
t 14.0038 /NodeList/0/DeviceList/0/$ns3::WifiNetDevice/Phy/Tx ns3::WifiMacHeader (DATA ToDS=0, FromDS=0, MoreFrag=0, Retry=1, MoreData=0 Duration/ID=120usDA=00:00:00:00:00:02, SA=00:00:00:00:00:01, BSSID=00:00:00:00:00:01, FragNumber=0, SeqNumber=14) ns3::LlcSnapHeader (type 0x800) ns3::Ipv4Header (tos 0x0 DSCP Default ECN Not-ECT ttl 64 id 13 protocol 17 offset (bytes) 0 flags [none] length: 284 10.0.0.1 > 10.0.0.2) ns3::UdpHeader (length: 264 49153 > 4000) Payload (size=256) ns3::WifiMacTrailer ()
t 14.0053 /NodeList/0/DeviceList/0/$ns3::WifiNetDevice/Phy/Tx ns3::WifiMacHeader (DATA ToDS=0, FromDS=0, MoreFrag=0, Retry=1, MoreData=0 Duration/ID=120usDA=00:00:00:00:00:02, SA=00:00:00:00:00:01, BSSID=00:00:00:00:00:01, FragNumber=0, SeqNumber=14) ns3::LlcSnapHeader (type 0x800) ns3::Ipv4Header (tos 0x0 DSCP Default ECN Not-ECT ttl 64 id 13 protocol 17 offset (bytes) 0 flags [none] length: 284 10.0.0.1 > 10.0.0.2) ns3::UdpHeader (length: 264 49153 > 4000) Payload (size=256) ns3::WifiMacTrailer ()
t 14.0087 /NodeList/0/DeviceList/0/$ns3::WifiNetDevice/Phy/Tx ns3::WifiMacHeader (DATA ToDS=0, FromDS=0, MoreFrag=0, Retry=1, MoreData=0 Duration/ID=120usDA=00:00:00:00:00:02, SA=00:00:00:00:00:01, BSSID=00:00:00:00:00:01, FragNumber=0, SeqNumber=14) ns3::LlcSnapHeader (type 0x800) ns3::Ipv4Header (tos 0x0 DSCP Default ECN Not-ECT ttl 64 id 13 protocol 17 offset (bytes) 0 flags [none] length: 284 10.0.0.1 > 10.0.0.2) ns3::UdpHeader (length: 264 49153 > 4000) Payload (size=256) ns3::WifiMacTrailer ()
t 14.0144 /NodeList/0/DeviceList/0/$ns3::WifiNetDevice/Phy/Tx ns3::WifiMacHeader (DATA ToDS=0, FromDS=0, MoreFrag=0, Retry=1, MoreData=0 Duration/ID=120usDA=00:00:00:00:00:02, SA=00:00:00:00:00:01, BSSID=00:00:00:00:00:01, FragNumber=0, SeqNumber=14) ns3::LlcSnapHeader (type 0x800) ns3::Ipv4Header (tos 0x0 DSCP Default ECN Not-ECT ttl 64 id 13 protocol 17 offset (bytes) 0 flags [none] length: 284 10.0.0.1 > 10.0.0.2) ns3::UdpHeader (length: 264 49153 > 4000) Payload (size=256) ns3::WifiMacTrailer ()
t 15 /NodeList/0/DeviceList/0/$ns3::WifiNetDevice/Phy/Tx ns3::WifiMacHeader (DATA ToDS=0, FromDS=0, MoreFrag=0, Retry=0, MoreData=0 Duration/ID=120usDA=00:00:00:00:00:02, SA=00:00:00:00:00:01, BSSID=00:00:00:00:00:01, FragNumber=0, SeqNumber=15) ns3::LlcSnapHeader (type 0x800) ns3::Ipv4Header (tos 0x0 DSCP Default ECN Not-ECT ttl 64 id 14 protocol 17 offset (bytes) 0 flags [none] length: 284 10.0.0.1 > 10.0.0.2) ns3::UdpHeader (length: 264 49153 > 4000) Payload (size=256) ns3::WifiMacTrailer ()
t 15.001 /NodeList/0/DeviceList/0/$ns3::WifiNetDevice/Phy/Tx ns3::WifiMacHeader (DATA ToDS=0, FromDS=0, MoreFrag=0, Retry=1, MoreData=0 Duration/ID=120usDA=00:00:00:00:00:02, SA=00:00:00:00:00:01, BSSID=00:00:00:00:00:01, FragNumber=0, SeqNumber=15) ns3::LlcSnapHeader (type 0x800) ns3::Ipv4Header (tos 0x0 DSCP Default ECN Not-ECT ttl 64 id 14 protocol 17 offset (bytes) 0 flags [none] length: 284 10.0.0.1 > 10.0.0.2) ns3::UdpHeader (length: 264 49153 > 4000) Payload (size=256) ns3::WifiMacTrailer ()
t 15.0021 /NodeList/0/DeviceList/0/$ns3::WifiNetDevice/Phy/Tx ns3::WifiMacHeader (DATA ToDS=0, FromDS=0, MoreFrag=0, Retry=1, MoreData=0 Duration/ID=120usDA=00:00:00:00:00:02, SA=00:00:00:00:00:01, BSSID=00:00:00:00:00:01, FragNumber=0, SeqNumber=15) ns3::LlcSnapHeader (type 0x800) ns3::Ipv4Header (tos 0x0 DSCP Default ECN Not-ECT ttl 64 id 14 protocol 17 offset (bytes) 0 flags [none] length: 284 10.0.0.1 > 10.0.0.2) ns3::UdpHeader (length: 264 49153 > 4000) Payload (size=256) ns3::WifiMacTrailer ()
t 15.0029 /NodeList/0/DeviceList/0/$ns3::WifiNetDevice/Phy/Tx ns3::WifiMacHeader (DATA ToDS=0, FromDS=0, MoreFrag=0, Retry=1, MoreData=0 Duration/ID=120usDA=00:00:00:00:00:02, SA=00:00:00:00:00:01, BSSID=00:00:00:00:00:01, FragNumber=0, SeqNumber=15) ns3::LlcSnapHeader (type 0x800) ns3::Ipv4Header (tos 0x0 DSCP Default ECN Not-ECT ttl 64 id 14 protocol 17 offset (bytes) 0 flags [none] length: 284 10.0.0.1 > 10.0.0.2) ns3::UdpHeader (length: 264 49153 > 4000) Payload (size=256) ns3::WifiMacTrailer ()
t 15.0066 /NodeList/0/DeviceList/0/$ns3::WifiNetDevice/Phy/Tx ns3::WifiMacHeader (DATA ToDS=0, FromDS=0, MoreFrag=0, Retry=1, MoreData=0 Duration/ID=120usDA=00:00:00:00:00:02, SA=00:00:00:00:00:01, BSSID=00:00:00:00:00:01, FragNumber=0, SeqNumber=15) ns3::LlcSnapHeader (type 0x800) ns3::Ipv4Header (tos 0x0 DSCP Default ECN Not-ECT ttl 64 id 14 protocol 17 offset (bytes) 0 flags [none] length: 284 10.0.0.1 > 10.0.0.2) ns3::UdpHeader (length: 264 49153 > 4000) Payload (size=256) ns3::WifiMacTrailer ()
t 15.012 /NodeList/0/DeviceList/0/$ns3::WifiNetDevice/Phy/Tx ns3::WifiMacHeader (DATA ToDS=0, FromDS=0, MoreFrag=0, Retry=1, MoreData=0 Duration/ID=120usDA=00:00:00:00:00:02, SA=00:00:00:00:00:01, BSSID=00:00:00:00:00:01, FragNumber=0, SeqNumber=15) ns3::LlcSnapHeader (type 0x800) ns3::Ipv4Header (tos 0x0 DSCP Default ECN Not-ECT ttl 64 id 14 protocol 17 offset (bytes) 0 flags [none] length: 284 10.0.0.1 > 10.0.0.2) ns3::UdpHeader (length: 264 49153 > 4000) Payload (size=256) ns3::WifiMacTrailer ()
t 15.013 /NodeList/0/DeviceList/0/$ns3::WifiNetDevice/Phy/Tx ns3::WifiMacHeader (DATA ToDS=0, FromDS=0, MoreFrag=0, Retry=1, MoreData=0 Duration/ID=120usDA=00:00:00:00:00:02, SA=00:00:00:00:00:01, BSSID=00:00:00:00:00:01, FragNumber=0, SeqNumber=15) ns3::LlcSnapHeader (type 0x800) ns3::Ipv4Header (tos 0x0 DSCP Default ECN Not-ECT ttl 64 id 14 protocol 17 offset (bytes) 0 flags [none] length: 284 10.0.0.1 > 10.0.0.2) ns3::UdpHeader (length: 264 49153 > 4000) Payload (size=256) ns3::WifiMacTrailer ()
t 16 /NodeList/0/DeviceList/0/$ns3::WifiNetDevice/Phy/Tx ns3::WifiMacHeader (DATA ToDS=0, FromDS=0, MoreFrag=0, Retry=0, MoreData=0 Duration/ID=120usDA=00:00:00:00:00:02, SA=00:00:00:00:00:01, BSSID=00:00:00:00:00:01, FragNumber=0, SeqNumber=16) ns3::LlcSnapHeader (type 0x800) ns3::Ipv4Header (tos 0x0 DSCP Default ECN Not-ECT ttl 64 id 15 protocol 17 offset (bytes) 0 flags [none] length: 284 10.0.0.1 > 10.0.0.2) ns3::UdpHeader (length: 264 49153 > 4000) Payload (size=256) ns3::WifiMacTrailer ()
t 16.0007 /NodeList/0/DeviceList/0/$ns3::WifiNetDevice/Phy/Tx ns3::WifiMacHeader (DATA ToDS=0, FromDS=0, MoreFrag=0, Retry=1, MoreData=0 Duration/ID=120usDA=00:00:00:00:00:02, SA=00:00:00:00:00:01, BSSID=00:00:00:00:00:01, FragNumber=0, SeqNumber=16) ns3::LlcSnapHeader (type 0x800) ns3::Ipv4Header (tos 0x0 DSCP Default ECN Not-ECT ttl 64 id 15 protocol 17 offset (bytes) 0 flags [none] length: 284 10.0.0.1 > 10.0.0.2) ns3::UdpHeader (length: 264 49153 > 4000) Payload (size=256) ns3::WifiMacTrailer ()
t 16.0018 /NodeList/0/DeviceList/0/$ns3::WifiNetDevice/Phy/Tx ns3::WifiMacHeader (DATA ToDS=0, FromDS=0, MoreFrag=0, Retry=1, MoreData=0 Duration/ID=120usDA=00:00:00:00:00:02, SA=00:00:00:00:00:01, BSSID=00:00:00:00:00:01, FragNumber=0, SeqNumber=16) ns3::LlcSnapHeader (type 0x800) ns3::Ipv4Header (tos 0x0 DSCP Default ECN Not-ECT ttl 64 id 15 protocol 17 offset (bytes) 0 flags [none] length: 284 10.0.0.1 > 10.0.0.2) ns3::UdpHeader (length: 264 49153 > 4000) Payload (size=256) ns3::WifiMacTrailer ()
t 16.0025 /NodeList/0/DeviceList/0/$ns3::WifiNetDevice/Phy/Tx ns3::WifiMacHeader (DATA ToDS=0, FromDS=0, MoreFrag=0, Retry=1, MoreData=0 Duration/ID=120usDA=00:00:00:00:00:02, SA=00:00:00:00:00:01, BSSID=00:00:00:00:00:01, FragNumber=0, SeqNumber=16) ns3::LlcSnapHeader (type 0x800) ns3::Ipv4Header (tos 0x0 DSCP Default ECN Not-ECT ttl 64 id 15 protocol 17 offset (bytes) 0 flags [none] length: 284 10.0.0.1 > 10.0.0.2) ns3::UdpHeader (length: 264 49153 > 4000) Payload (size=256) ns3::WifiMacTrailer ()
t 16.0063 /NodeList/0/DeviceList/0/$ns3::WifiNetDevice/Phy/Tx ns3::WifiMacHeader (DATA ToDS=0, FromDS=0, MoreFrag=0, Retry=1, MoreData=0 Duration/ID=120usDA=00:00:00:00:00:02, SA=00:00:00:00:00:01, BSSID=00:00:00:00:00:01, FragNumber=0, SeqNumber=16) ns3::LlcSnapHeader (type 0x800) ns3::Ipv4Header (tos 0x0 DSCP Default ECN Not-ECT ttl 64 id 15 protocol 17 offset (bytes) 0 flags [none] length: 284 10.0.0.1 > 10.0.0.2) ns3::UdpHeader (length: 264 49153 > 4000) Payload (size=256) ns3::WifiMacTrailer ()
t 16.0123 /NodeList/0/DeviceList/0/$ns3::WifiNetDevice/Phy/Tx ns3::WifiMacHeader (DATA ToDS=0, FromDS=0, MoreFrag=0, Retry=1, MoreData=0 Duration/ID=120usDA=00:00:00:00:00:02, SA=00:00:00:00:00:01, BSSID=00:00:00:00:00:01, FragNumber=0, SeqNumber=16) ns3::LlcSnapHeader (type 0x800) ns3::Ipv4Header (tos 0x0 DSCP Default ECN Not-ECT ttl 64 id 15 protocol 17 offset (bytes) 0 flags [none] length: 284 10.0.0.1 > 10.0.0.2) ns3::UdpHeader (length: 264 49153 > 4000) Payload (size=256) ns3::WifiMacTrailer ()